# vtk DataFile Version 4.2
vtk output
ASCII
DATASET UNSTRUCTURED_GRID
POINTS 152 float
0 0 0 0.2 0 0 0.4 0 0 
0.6 0 0 0.8 0 0 1 0 0 
0 0.2 0 0.2 0.2 0 0.4 0.2 0 
0.6 0.2 0 0.8 0.2 0 1 0.2 0 
0 0.4 0 0.2 0.4 0 0.4 0.4 0 
0.6 0.4 0 0.8 0.4 0 1 0.4 0 
0 0.6 0 0.2 0.6 0 0.4 0.6 0 
0.6 0.6 0 0.8 0.6 0 1 0.6 0 
0 0.8 0 0.2 0.8 0 0.4 0.8 0 
0.6 0.8 0 0.8 0.8 0 1 0.8 0 
0 1 0 0.2 1 0 0.4 1 0 
0.6 1 0 0.8 1 0 1 1 0 
0 0 0.2 0.2 0 0.2 0.4 0 0.2 
0.6 0 0.2 0.8 0 0.2 1 0 0.2 
0 0.2 0.2 1 0.2 0.2 0 0.4 0.2 
1 0.4 0.2 0 0.6 0.2 1 0.6 0.2 
0 0.8 0.2 1 0.8 0.2 0 1 0.2 
0.2 1 0.2 0.4 1 0.2 0.6 1 0.2 
0.8 1 0.2 1 1 0.2 0 0 0.4 
0.2 0 0.4 0.4 0 0.4 0.6 0 0.4 
0.8 0 0.4 1 0 0.4 0 0.2 0.4 
1 0.2 0.4 0 0.4 0.4 1 0.4 0.4 
0 0.6 0.4 1 0.6 0.4 0 0.8 0.4 
1 0.8 0.4 0 1 0.4 0.2 1 0.4 
0.4 1 0.4 0.6 1 0.4 0.8 1 0.4 
1 1 0.4 0 0 0.6 0.2 0 0.6 
0.4 0 0.6 0.6 0 0.6 0.8 0 0.6 
1 0 0.6 0 0.2 0.6 1 0.2 0.6 
0 0.4 0.6 1 0.4 0.6 0 0.6 0.6 
1 0.6 0.6 0 0.8 0.6 1 0.8 0.6 
0 1 0.6 0.2 1 0.6 0.4 1 0.6 
0.6 1 0.6 0.8 1 0.6 1 1 0.6 
0 0 0.8 0.2 0 0.8 0.4 0 0.8 
0.6 0 0.8 0.8 0 0.8 1 0 0.8 
0 0.2 0.8 1 0.2 0.8 0 0.4 0.8 
1 0.4 0.8 0 0.6 0.8 1 0.6 0.8 
0 0.8 0.8 1 0.8 0.8 0 1 0.8 
0.2 1 0.8 0.4 1 0.8 0.6 1 0.8 
0.8 1 0.8 1 1 0.8 0 0 1 
0.2 0 1 0.4 0 1 0.6 0 1 
0.8 0 1 1 0 1 0 0.2 1 
0.2 0.2 1 0.4 0.2 1 0.6 0.2 1 
0.8 0.2 1 1 0.2 1 0 0.4 1 
0.2 0.4 1 0.4 0.4 1 0.6 0.4 1 
0.8 0.4 1 1 0.4 1 0 0.6 1 
0.2 0.6 1 0.4 0.6 1 0.6 0.6 1 
0.8 0.6 1 1 0.6 1 0 0.8 1 
0.2 0.8 1 0.4 0.8 1 0.6 0.8 1 
0.8 0.8 1 1 0.8 1 0 1 1 
0.2 1 1 0.4 1 1 0.6 1 1 
0.8 1 1 1 1 1 
CELLS 733 3245
2 149 150 
2 32 33 
2 29 35 
2 116 117 
2 150 151 
2 33 34 
2 55 75 
2 117 118 
2 0 1 
2 34 35 
2 56 76 
2 118 119 
2 1 2 
2 90 110 
2 119 120 
2 116 122 
2 133 139 
2 41 61 
2 115 151 
2 120 121 
2 75 95 
2 0 6 
2 134 140 
2 17 23 
2 4 5 
2 18 24 
2 0 36 
2 61 81 
2 95 115 
2 121 127 
2 96 116 
2 122 128 
2 5 11 
2 30 50 
2 139 145 
2 81 101 
2 6 12 
2 140 146 
2 23 29 
2 5 41 
2 24 30 
2 50 70 
2 146 147 
2 101 121 
2 127 133 
2 35 55 
2 147 148 
2 30 31 
2 128 134 
2 11 17 
2 36 56 
2 148 149 
2 145 151 
2 110 146 
2 70 90 
2 12 18 
2 31 32 
2 3 4 
2 76 96 
2 2 3 
3 87 107 85 
3 87 89 107 
3 80 81 100 
3 80 60 81 
3 57 37 58 
3 57 58 77 
3 69 67 49 
3 69 89 67 
3 69 49 75 
3 21 27 28 
3 27 33 28 
3 27 26 33 
3 53 52 73 
3 53 54 33 
3 43 11 45 
3 150 113 149 
3 150 149 143 
3 151 145 115 
3 151 150 145 
3 151 115 150 
3 91 111 92 
3 134 106 104 
3 111 146 147 
3 141 147 146 
3 139 107 145 
3 138 139 145 
3 114 150 115 
3 145 144 138 
3 87 67 89 
3 142 143 148 
3 150 143 144 
3 149 113 148 
3 149 148 143 
3 146 108 140 
3 146 140 141 
3 142 148 141 
3 140 134 141 
3 108 134 140 
3 137 138 143 
3 105 107 133 
3 132 126 133 
3 125 126 131 
3 132 131 126 
3 138 131 132 
3 139 133 107 
3 139 138 133 
3 144 143 138 
3 84 86 64 
3 84 104 86 
3 130 124 131 
3 134 135 141 
3 106 134 108 
3 107 109 145 
3 126 125 119 
3 121 100 101 
3 103 121 101 
3 105 133 103 
3 141 135 136 
3 105 103 85 
3 135 134 129 
3 130 129 124 
3 128 122 129 
3 104 122 128 
3 136 130 131 
3 97 96 77 
3 102 104 82 
3 79 58 59 
3 121 103 127 
3 126 121 127 
3 133 127 103 
3 133 126 127 
3 100 121 120 
3 126 120 121 
3 83 103 81 
3 120 119 100 
3 126 119 120 
3 100 119 99 
3 118 119 124 
3 118 98 119 
3 39 38 2 
3 118 117 98 
3 118 124 117 
3 136 129 130 
3 131 124 125 
3 122 123 129 
3 123 122 117 
3 124 123 117 
3 119 98 99 
3 97 98 117 
3 116 96 117 
3 122 116 117 
3 122 96 116 
3 102 96 122 
3 115 95 94 
3 115 89 95 
3 115 94 114 
3 113 94 93 
3 92 112 113 
3 94 75 74 
3 89 115 109 
3 145 150 144 
3 110 90 108 
3 110 111 90 
3 108 86 106 
3 93 92 113 
3 136 135 129 
3 102 122 104 
3 114 113 150 
3 109 107 89 
3 91 71 90 
3 92 93 73 
3 70 90 71 
3 70 68 90 
3 70 50 68 
3 70 71 50 
3 111 112 92 
3 92 72 71 
3 86 88 68 
3 97 117 96 
3 84 64 82 
3 103 83 85 
3 80 100 79 
3 83 63 85 
3 43 63 41 
3 83 81 63 
3 80 79 60 
3 2 37 1 
3 2 1 7 
3 67 85 65 
3 78 77 58 
3 24 18 46 
3 24 19 18 
3 82 62 56 
3 86 104 106 
3 82 64 62 
3 138 132 133 
3 75 49 55 
3 75 55 54 
3 55 49 35 
3 55 35 54 
3 67 47 49 
3 143 136 137 
3 90 68 88 
3 48 68 50 
3 50 24 48 
3 59 39 60 
3 40 60 39 
3 41 61 60 
3 63 61 41 
3 63 65 85 
3 20 14 19 
3 66 86 68 
3 134 128 129 
3 134 104 128 
3 40 4 41 
3 148 112 111 
3 63 45 65 
3 137 131 138 
3 64 86 66 
3 35 34 54 
3 35 28 34 
3 64 46 44 
3 74 75 54 
3 34 28 33 
3 34 33 54 
3 27 21 26 
3 54 53 73 
3 51 52 31 
3 108 90 88 
3 91 92 71 
3 50 51 31 
3 15 14 21 
3 71 52 51 
3 31 32 26 
3 52 32 31 
3 29 49 23 
3 29 23 28 
3 87 85 67 
3 22 16 21 
3 22 21 28 
3 23 22 28 
3 31 26 25 
3 26 21 20 
3 98 78 79 
3 47 45 23 
3 8 2 7 
3 67 45 47 
3 49 47 23 
3 43 45 63 
3 81 60 61 
3 63 81 61 
3 35 49 29 
3 35 29 28 
3 59 58 39 
3 21 16 15 
3 73 74 54 
3 73 93 94 
3 23 17 16 
3 23 45 17 
3 39 58 38 
3 26 20 19 
3 33 26 32 
3 33 32 52 
3 94 74 73 
3 48 24 46 
3 46 68 48 
3 19 14 13 
3 72 52 71 
3 94 95 75 
3 89 75 95 
3 19 13 12 
3 25 19 24 
3 18 12 46 
3 19 12 18 
3 19 25 26 
3 65 45 67 
3 64 44 42 
3 57 77 56 
3 14 8 7 
3 42 44 12 
3 1 37 0 
3 1 0 7 
3 36 42 0 
3 36 0 37 
3 62 42 56 
3 6 12 7 
3 42 12 6 
3 64 42 62 
3 13 14 7 
3 21 14 20 
3 10 11 4 
3 91 90 111 
3 57 56 37 
3 5 41 4 
3 11 5 4 
3 11 41 5 
3 10 4 9 
3 3 9 4 
3 3 4 39 
3 16 9 15 
3 14 15 9 
3 46 12 44 
3 56 36 37 
3 56 42 36 
3 6 7 0 
3 42 6 0 
3 9 2 8 
3 10 9 16 
3 66 46 64 
3 113 112 148 
3 82 104 84 
3 98 77 78 
3 9 8 14 
3 79 59 60 
3 79 78 58 
3 142 141 136 
3 147 148 111 
3 147 141 148 
3 124 129 123 
3 142 136 143 
3 99 98 79 
3 125 124 119 
3 76 82 56 
3 77 76 56 
3 53 33 52 
3 137 136 131 
3 100 99 79 
3 73 52 72 
3 102 82 96 
3 31 25 24 
3 16 17 11 
3 45 11 17 
3 22 23 16 
3 40 41 60 
3 69 75 89 
3 103 101 81 
3 100 81 101 
3 16 11 10 
3 30 50 31 
3 24 30 31 
3 24 50 30 
3 13 7 12 
3 43 41 11 
3 50 71 51 
3 72 92 73 
3 107 105 85 
3 66 68 46 
3 58 37 38 
3 96 82 76 
3 96 76 77 
3 108 88 86 
3 146 110 108 
3 146 111 110 
3 3 39 2 
3 3 2 9 
3 109 115 145 
3 114 94 113 
3 38 37 2 
3 97 77 98 
3 40 39 4 
4 87 138 85 107 
4 87 89 138 107 
4 84 130 86 129 
4 84 78 123 82 
4 80 83 100 81 
4 80 83 81 60 
4 57 58 37 62 
4 57 62 77 58 
4 69 53 54 49 
4 69 67 53 49 
4 69 89 73 67 
4 69 54 75 49 
4 130 64 86 72 
4 66 20 72 64 
4 66 72 20 46 
4 66 86 72 71 
4 66 72 46 71 
4 53 21 27 28 
4 53 27 33 28 
4 53 27 21 52 
4 27 33 26 52 
4 53 73 52 21 
4 53 54 28 33 
4 69 73 53 67 
4 43 45 11 10 
4 114 145 144 109 
4 150 143 149 113 
4 151 150 115 145 
4 91 88 92 111 
4 134 129 104 106 
4 108 141 111 146 
4 141 111 146 147 
4 143 109 89 113 
4 138 139 107 145 
4 114 115 150 145 
4 145 138 144 109 
4 87 93 89 67 
4 112 136 92 143 
4 142 148 143 112 
4 150 113 144 143 
4 149 143 148 113 
4 146 141 140 108 
4 142 112 141 148 
4 108 140 134 141 
4 141 135 111 112 
4 131 78 58 65 
4 113 144 143 109 
4 138 109 89 143 
4 89 137 138 143 
4 138 105 107 133 
4 132 126 105 133 
4 105 125 126 131 
4 132 131 105 126 
4 138 105 132 131 
4 139 138 107 133 
4 92 137 93 143 
4 109 144 143 138 
4 84 86 130 64 
4 136 135 112 92 
4 137 92 85 131 
4 84 129 86 104 
4 72 65 92 130 
4 130 131 124 78 
4 134 141 135 108 
4 135 106 134 108 
4 107 145 109 138 
4 126 125 100 119 
4 126 121 100 101 
4 126 103 121 101 
4 105 126 103 133 
4 141 112 136 135 
4 137 87 85 92 
4 136 130 86 92 
4 131 65 85 79 
4 105 103 125 85 
4 126 100 125 103 
4 135 129 134 106 
4 130 129 78 124 
4 104 128 122 129 
4 58 65 15 130 
4 136 92 131 130 
4 102 97 96 77 
4 102 104 123 82 
4 79 58 65 59 
4 102 123 77 82 
4 126 121 103 127 
4 133 127 126 103 
4 126 100 121 120 
4 100 83 103 81 
4 100 103 83 79 
4 126 120 119 100 
4 125 100 119 99 
4 125 99 103 100 
4 118 119 98 124 
4 39 2 38 9 
4 118 124 98 117 
4 125 103 79 83 
4 136 130 129 86 
4 105 131 85 125 
4 102 122 97 123 
4 131 79 125 124 
4 122 129 123 104 
4 123 122 97 117 
4 141 135 108 111 
4 124 117 123 98 
4 119 99 98 124 
4 123 97 98 117 
4 122 116 96 117 
4 102 77 123 97 
4 102 97 122 96 
4 115 89 94 95 
4 143 113 89 93 
4 130 131 78 58 
4 87 137 138 89 
4 115 94 89 114 
4 113 89 93 94 
4 92 65 72 67 
4 92 143 113 112 
4 130 58 78 64 
4 89 94 75 74 
4 89 114 109 115 
4 114 145 150 144 
4 110 90 111 108 
4 108 86 135 106 
4 93 143 113 92 
4 84 130 78 64 
4 86 136 135 129 
4 125 103 99 79 
4 126 101 100 103 
4 125 79 99 124 
4 135 106 86 129 
4 124 123 78 98 
4 102 122 123 104 
4 114 150 113 144 
4 67 93 92 87 
4 89 67 93 73 
4 138 109 107 89 
4 91 88 90 71 
4 92 67 73 93 
4 92 71 86 88 
4 65 92 130 131 
4 70 90 68 71 
4 70 50 71 68 
4 135 111 112 92 
4 43 45 10 39 
4 92 72 86 71 
4 86 68 88 71 
4 65 85 92 131 
4 92 88 86 111 
4 122 97 117 96 
4 84 130 129 78 
4 84 78 82 64 
4 125 103 83 85 
4 80 79 100 83 
4 83 79 85 60 
4 83 63 60 85 
4 43 63 39 60 
4 63 65 39 60 
4 43 60 41 63 
4 83 60 63 81 
4 125 85 83 79 
4 80 60 79 83 
4 85 79 65 60 
4 136 92 86 135 
4 2 7 1 37 
4 67 85 92 65 
4 130 72 14 64 
4 78 62 58 77 
4 24 19 46 18 
4 77 82 62 56 
4 129 86 104 106 
4 15 39 45 65 
4 78 82 64 62 
4 138 133 132 105 
4 75 54 55 49 
4 55 28 35 49 
4 72 64 20 14 
4 55 35 28 54 
4 53 67 47 49 
4 53 67 21 47 
4 53 73 21 67 
4 53 21 54 49 
4 143 136 92 137 
4 20 52 46 72 
4 73 67 72 21 
4 71 48 51 46 
4 90 88 68 71 
4 48 68 71 50 
4 50 48 24 51 
4 48 51 25 24 
4 48 51 46 25 
4 131 79 78 65 
4 65 59 39 60 
4 40 60 43 39 
4 63 41 61 60 
4 63 60 85 65 
4 20 19 14 46 
4 66 71 68 86 
4 134 104 129 128 
4 123 82 78 77 
4 105 103 126 125 
4 137 93 89 87 
4 131 79 124 78 
4 137 85 105 131 
4 87 93 92 137 
4 40 4 10 41 
4 141 148 112 111 
4 63 39 65 45 
4 143 93 89 137 
4 137 138 131 105 
4 37 14 38 8 
4 64 86 72 66 
4 35 34 28 54 
4 64 46 13 44 
4 55 49 54 28 
4 69 74 75 54 
4 34 54 33 28 
4 53 28 54 21 
4 27 52 26 21 
4 69 54 53 73 
4 51 52 25 31 
4 108 88 90 111 
4 91 71 92 88 
4 50 31 51 24 
4 15 14 72 21 
4 14 42 37 64 
4 71 46 51 52 
4 52 31 32 26 
4 51 25 52 46 
4 29 28 23 49 
4 92 87 85 67 
4 72 15 67 65 
4 54 28 49 21 
4 22 47 21 16 
4 49 21 22 47 
4 49 22 21 28 
4 53 49 47 21 
4 49 23 22 28 
4 52 31 26 25 
4 52 26 21 20 
4 52 46 25 19 
4 124 98 78 79 
4 47 23 45 16 
4 8 2 37 7 
4 67 45 15 47 
4 49 22 23 47 
4 43 39 63 45 
4 63 81 60 61 
4 35 28 29 49 
4 59 58 15 39 
4 130 65 15 72 
4 47 21 16 15 
4 69 73 74 54 
4 89 73 93 94 
4 72 52 21 20 
4 23 17 45 16 
4 39 38 58 15 
4 137 138 105 85 
4 52 26 20 19 
4 33 52 32 26 
4 89 94 74 73 
4 48 24 25 46 
4 46 68 71 48 
4 19 14 46 13 
4 72 52 46 71 
4 89 94 95 75 
4 20 46 14 64 
4 46 19 13 12 
4 25 24 19 46 
4 19 18 12 46 
4 52 19 25 26 
4 65 15 67 45 
4 46 14 64 13 
4 130 64 14 58 
4 64 13 42 44 
4 57 56 77 62 
4 40 10 43 41 
4 21 15 67 72 
4 14 7 8 37 
4 42 12 44 13 
4 7 0 37 42 
4 1 7 0 37 
4 36 37 0 42 
4 62 37 56 42 
4 42 6 12 7 
4 37 14 64 58 
4 64 37 62 42 
4 42 13 14 7 
4 72 21 14 20 
4 10 4 11 41 
4 91 111 90 88 
4 57 62 37 56 
4 11 5 41 4 
4 10 4 39 9 
4 10 45 9 39 
4 3 39 4 9 
4 16 9 45 15 
4 47 45 15 16 
4 14 9 15 38 
4 67 21 47 15 
4 78 77 82 62 
4 46 44 12 13 
4 7 42 37 14 
4 65 59 58 15 
4 56 42 37 36 
4 42 6 7 0 
4 9 38 8 2 
4 69 73 89 74 
4 15 38 58 14 
4 10 16 9 45 
4 66 64 46 20 
4 143 113 112 148 
4 111 108 86 135 
4 82 84 104 123 
4 123 98 77 78 
4 38 9 8 14 
4 79 59 65 60 
4 79 78 65 58 
4 142 141 112 136 
4 78 58 62 64 
4 147 141 111 148 
4 64 13 14 42 
4 124 123 129 78 
4 142 112 143 136 
4 113 114 109 89 
4 124 99 98 79 
4 125 99 119 124 
4 65 39 59 15 
4 77 76 82 56 
4 123 84 104 129 
4 53 52 33 27 
4 19 20 52 46 
4 15 130 14 58 
4 135 92 86 111 
4 137 136 92 131 
4 131 85 125 79 
4 100 103 79 99 
4 73 72 52 21 
4 102 77 96 82 
4 51 31 25 24 
4 45 16 17 11 
4 22 16 23 47 
4 45 9 39 15 
4 40 43 60 41 
4 69 74 89 75 
4 100 103 101 81 
4 45 16 11 10 
4 24 30 50 31 
4 42 13 7 12 
4 64 58 62 37 
4 43 41 10 11 
4 50 48 51 71 
4 72 67 73 92 
4 40 43 10 39 
4 137 87 138 85 
4 130 131 58 65 
4 129 78 123 84 
4 130 92 72 86 
4 138 107 105 85 
4 38 9 15 39 
4 114 113 109 144 
4 66 71 46 68 
4 58 37 14 38 
4 96 77 76 82 
4 111 108 88 86 
4 146 110 111 108 
4 3 9 2 39 
4 114 109 115 145 
4 114 94 89 113 
4 38 8 2 37 
4 123 97 77 98 
4 72 130 14 15 
4 40 39 10 4 

CELL_TYPES 733
3
3
3
3
3
3
3
3
3
3
3
3
3
3
3
3
3
3
3
3
3
3
3
3
3
3
3
3
3
3
3
3
3
3
3
3
3
3
3
3
3
3
3
3
3
3
3
3
3
3
3
3
3
3
3
3
3
3
3
3
5
5
5
5
5
5
5
5
5
5
5
5
5
5
5
5
5
5
5
5
5
5
5
5
5
5
5
5
5
5
5
5
5
5
5
5
5
5
5
5
5
5
5
5
5
5
5
5
5
5
5
5
5
5
5
5
5
5
5
5
5
5
5
5
5
5
5
5
5
5
5
5
5
5
5
5
5
5
5
5
5
5
5
5
5
5
5
5
5
5
5
5
5
5
5
5
5
5
5
5
5
5
5
5
5
5
5
5
5
5
5
5
5
5
5
5
5
5
5
5
5
5
5
5
5
5
5
5
5
5
5
5
5
5
5
5
5
5
5
5
5
5
5
5
5
5
5
5
5
5
5
5
5
5
5
5
5
5
5
5
5
5
5
5
5
5
5
5
5
5
5
5
5
5
5
5
5
5
5
5
5
5
5
5
5
5
5
5
5
5
5
5
5
5
5
5
5
5
5
5
5
5
5
5
5
5
5
5
5
5
5
5
5
5
5
5
5
5
5
5
5
5
5
5
5
5
5
5
5
5
5
5
5
5
5
5
5
5
5
5
5
5
5
5
5
5
5
5
5
5
5
5
5
5
5
5
5
5
5
5
5
5
5
5
5
5
5
5
5
5
5
5
5
5
5
5
5
5
5
5
5
5
5
5
5
5
5
5
5
5
5
5
5
5
5
5
5
5
5
5
10
10
10
10
10
10
10
10
10
10
10
10
10
10
10
10
10
10
10
10
10
10
10
10
10
10
10
10
10
10
10
10
10
10
10
10
10
10
10
10
10
10
10
10
10
10
10
10
10
10
10
10
10
10
10
10
10
10
10
10
10
10
10
10
10
10
10
10
10
10
10
10
10
10
10
10
10
10
10
10
10
10
10
10
10
10
10
10
10
10
10
10
10
10
10
10
10
10
10
10
10
10
10
10
10
10
10
10
10
10
10
10
10
10
10
10
10
10
10
10
10
10
10
10
10
10
10
10
10
10
10
10
10
10
10
10
10
10
10
10
10
10
10
10
10
10
10
10
10
10
10
10
10
10
10
10
10
10
10
10
10
10
10
10
10
10
10
10
10
10
10
10
10
10
10
10
10
10
10
10
10
10
10
10
10
10
10
10
10
10
10
10
10
10
10
10
10
10
10
10
10
10
10
10
10
10
10
10
10
10
10
10
10
10
10
10
10
10
10
10
10
10
10
10
10
10
10
10
10
10
10
10
10
10
10
10
10
10
10
10
10
10
10
10
10
10
10
10
10
10
10
10
10
10
10
10
10
10
10
10
10
10
10
10
10
10
10
10
10
10
10
10
10
10
10
10
10
10
10
10
10
10
10
10
10
10
10
10
10
10
10
10
10
10
10
10
10
10
10
10
10
10
10
10
10
10
10
10
10
10
10
10
10
10
10
10
10
10
10
10
10
10
10
10
10
10
10
10
10
10
10
10
10
10
10
10
10
10
10
10
10
10
10
10
10
10
10
10
10
10
10
10
10
10
10
10
10
10
10
10
10
10
10
10
10
10
10
10
10
10
10
10
10

CELL_DATA 733
FIELD FieldData 1
medit:ridges 1 733 int
2 2 2 2 2 2 2 2 2 
2 2 2 2 2 2 2 2 2 
2 2 2 2 2 2 2 2 2 
2 2 2 2 2 2 2 2 2 
2 2 2 2 2 2 2 2 2 
2 2 2 2 2 2 2 2 2 
2 2 2 2 2 2 0 0 0 
0 0 0 0 0 0 0 0 0 
0 0 0 0 0 0 0 0 0 
0 0 0 0 0 0 0 0 0 
0 0 0 0 0 0 0 0 0 
0 0 0 0 0 0 0 0 0 
0 0 0 0 0 0 0 0 0 
0 0 0 0 0 0 0 0 0 
0 0 0 0 0 0 0 0 0 
0 0 0 0 0 0 0 0 0 
0 0 0 0 0 0 0 0 0 
0 0 0 0 0 0 0 0 0 
0 0 0 0 0 0 0 0 0 
0 0 0 0 0 0 0 0 0 
0 0 0 0 0 0 0 0 0 
0 0 0 0 0 0 0 0 0 
0 0 0 0 0 0 0 0 0 
0 0 0 0 0 0 0 0 0 
0 0 0 0 0 0 0 0 0 
0 0 0 0 0 0 0 0 0 
0 0 0 0 0 0 0 0 0 
0 0 0 0 0 0 0 0 0 
0 0 0 0 0 0 0 0 0 
0 0 0 0 0 0 0 0 0 
0 0 0 0 0 0 0 0 0 
0 0 0 0 0 0 0 0 0 
0 0 0 0 0 0 0 0 0 
0 0 0 0 0 0 0 0 0 
0 0 0 0 0 0 0 0 0 
0 0 0 0 0 0 0 0 0 
0 0 0 0 0 0 0 0 0 
0 0 0 0 0 0 0 0 0 
0 0 0 0 0 0 0 0 0 
0 0 0 0 0 0 0 0 0 
0 0 0 0 0 0 0 0 0 
0 0 0 0 0 0 0 0 0 
0 0 0 0 0 0 0 0 0 
0 0 0 0 0 0 0 0 0 
0 0 0 0 0 0 0 0 0 
0 0 0 0 0 0 0 0 0 
0 0 0 0 0 0 0 0 0 
0 0 0 0 0 0 0 0 0 
0 0 0 0 0 0 0 0 0 
0 0 0 0 0 0 0 0 0 
0 0 0 0 0 0 0 0 0 
0 0 0 0 0 0 0 0 0 
0 0 0 0 0 0 0 0 0 
0 0 0 0 0 0 0 0 0 
0 0 0 0 0 0 0 0 0 
0 0 0 0 0 0 0 0 0 
0 0 0 0 0 0 0 0 0 
0 0 0 0 0 0 0 0 0 
0 0 0 0 0 0 0 0 0 
0 0 0 0 0 0 0 0 0 
0 0 0 0 0 0 0 0 0 
0 0 0 0 0 0 0 0 0 
0 0 0 0 0 0 0 0 0 
0 0 0 0 0 0 0 0 0 
0 0 0 0 0 0 0 0 0 
0 0 0 0 0 0 0 0 0 
0 0 0 0 0 0 0 0 0 
0 0 0 0 0 0 0 0 0 
0 0 0 0 0 0 0 0 0 
0 0 0 0 0 0 0 0 0 
0 0 0 0 0 0 0 0 0 
0 0 0 0 0 0 0 0 0 
0 0 0 0 0 0 0 0 0 
0 0 0 0 0 0 0 0 0 
0 0 0 0 0 0 0 0 0 
0 0 0 0 0 0 0 0 0 
0 0 0 0 0 0 0 0 0 
0 0 0 0 0 0 0 0 0 
0 0 0 0 0 0 0 0 0 
0 0 0 0 0 0 0 0 0 
0 0 0 0 0 0 0 0 0 
0 0 0 0 
POINT_DATA 152
FIELD FieldData 2
medit:corner 1 152 int
32 0 0 0 0 32 0 0 0 
0 0 0 0 0 0 0 0 0 
0 0 0 0 0 0 0 0 0 
0 0 0 32 0 0 0 0 32 
0 0 0 0 0 0 0 0 0 
0 0 0 0 0 0 0 0 0 
0 0 0 0 0 0 0 0 0 
0 0 0 0 0 0 0 0 0 
0 0 0 0 0 0 0 0 0 
0 0 0 0 0 0 0 0 0 
0 0 0 0 0 0 0 0 0 
0 0 0 0 0 0 0 0 0 
0 0 0 0 0 0 0 0 32 
0 0 0 0 32 0 0 0 0 
0 0 0 0 0 0 0 0 0 
0 0 0 0 0 0 0 0 0 
0 0 32 0 0 0 0 32 
medit:requiredVertices 1 152 int
0 0 0 0 0 0 0 0 0 
0 0 0 0 0 0 0 0 0 
0 0 0 0 0 0 0 0 0 
0 0 0 0 0 0 0 0 0 
0 0 0 0 0 0 0 0 0 
0 0 0 0 0 0 0 0 0 
0 0 0 0 0 0 0 0 0 
0 0 0 0 0 0 0 0 0 
0 0 0 0 0 0 0 0 0 
0 0 0 0 0 0 0 0 0 
0 0 0 0 0 0 0 0 0 
0 0 0 0 0 0 0 0 0 
0 0 0 0 0 0 0 0 0 
0 0 0 0 0 0 0 0 0 
0 0 0 0 0 0 0 0 0 
0 0 0 0 0 0 0 0 0 
0 0 0 0 0 0 0 0 
